<?xml version = "1.0"?> 
<VTKFile type="UnstructuredGrid" version="0.1" byte_order="LittleEndian">
<UnstructuredGrid>
<Piece NumberOfPoints="       124" NumberOfCells="        31">
<PointData>
</PointData>
<CellData>
<DataArray type="Int32" Name="Orders"  NumberOfComponents="2" format="ascii">
       00000003         00000003  
       00000002         00000003  
       00000003         00000003  
       00000003         00000003  
       00000003         00000003  
       00000003         00000003  
       00000003         00000003  
       00000002         00000003  
       00000003         00000003  
       00000003         00000003  
       00000003         00000003  
       00000003         00000003  
       00000002         00000002  
       00000002         00000002  
       00000002         00000003  
       00000003         00000003  
       00000003         00000003  
       00000002         00000003  
       00000003         00000003  
       00000003         00000002  
       00000002         00000003  
       00000003         00000003  
       00000003         00000003  
       00000002         00000003  
       00000002         00000003  
       00000002         00000003  
       00000003         00000003  
       00000002         00000003  
       00000002         00000003  
       00000003         00000003  
       00000003         00000003  
</DataArray>

<DataArray type="Int32" Name="order_per_elem"  NumberOfComponents="10" format="ascii">
       00000001         00000001         00000001         00000001         00000003         00000003         00000003         00000003         00000003         00000003  
       00000001         00000000         00000000         00000001         00000002         00000000         00000002         00000003         00000002         00000003  
       00000001         00000000         00000000         00000001         00000002         00000000         00000003         00000003         00000003         00000003  
       00000000         00000001         00000001         00000001         00000003         00000003         00000003         00000003         00000003         00000003  
       00000001         00000000         00000001         00000001         00000002         00000003         00000003         00000003         00000003         00000003  
       00000001         00000001         00000000         00000001         00000003         00000003         00000003         00000003         00000003         00000003  
       00000001         00000001         00000001         00000000         00000003         00000003         00000003         00000003         00000003         00000003  
       00000000         00000001         00000001         00000001         00000002         00000003         00000002         00000003         00000002         00000003  
       00000001         00000000         00000001         00000001         00000003         00000003         00000003         00000003         00000003         00000003  
       00000001         00000001         00000000         00000001         00000003         00000003         00000002         00000003         00000003         00000003  
       00000001         00000001         00000001         00000000         00000002         00000003         00000003         00000003         00000003         00000003  
       00000000         00000001         00000001         00000001         00000002         00000002         00000002         00000003         00000003         00000003  
       00000001         00000000         00000000         00000001         00000002         00000000         00000002         00000002         00000002         00000002  
       00000001         00000000         00000000         00000001         00000002         00000000         00000002         00000002         00000002         00000002  
       00000001         00000001         00000001         00000000         00000002         00000002         00000002         00000003         00000002         00000003  
       00000000         00000001         00000001         00000001         00000003         00000003         00000003         00000003         00000003         00000003  
       00000001         00000000         00000001         00000001         00000003         00000002         00000002         00000003         00000003         00000003  
       00000001         00000001         00000000         00000001         00000002         00000003         00000002         00000003         00000002         00000003  
       00000001         00000001         00000001         00000000         00000003         00000003         00000003         00000003         00000003         00000003  
       00000000         00000001         00000001         00000001         00000003         00000002         00000003         00000002         00000003         00000002  
       00000001         00000000         00000001         00000001         00000002         00000003         00000002         00000002         00000002         00000003  
       00000001         00000001         00000000         00000001         00000002         00000003         00000003         00000003         00000003         00000003  
       00000001         00000001         00000001         00000000         00000003         00000003         00000003         00000003         00000003         00000003  
       00000000         00000001         00000001         00000001         00000002         00000003         00000002         00000003         00000002         00000003  
       00000001         00000000         00000001         00000001         00000002         00000003         00000002         00000003         00000002         00000003  
       00000001         00000001         00000000         00000000         00000002         00000003         00000000         00000003         00000002         00000003  
       00000001         00000001         00000000         00000000         00000002         00000003         00000000         00000003         00000003         00000003  
       00000000         00000000         00000001         00000001         00000000         00000003         00000002         00000003         00000002         00000003  
       00000000         00000000         00000000         00000001         00000000         00000000         00000002         00000003         00000002         00000003  
       00000001         00000000         00000000         00000000         00000002         00000000         00000000         00000003         00000003         00000003  
       00000001         00000001         00000000         00000000         00000002         00000003         00000000         00000003         00000003         00000003  
</DataArray>

<DataArray type="Int32" Name="Rank"  NumberOfComponents="1" format="ascii">
       00000002  
       00000002  
       00000002  
       00000002  
       00000002  
       00000002  
       00000002  
       00000002  
       00000002  
       00000002  
       00000002  
       00000002  
       00000002  
       00000002  
       00000002  
       00000002  
       00000002  
       00000002  
       00000002  
       00000002  
       00000002  
       00000002  
       00000002  
       00000002  
       00000002  
       00000002  
       00000002  
       00000002  
       00000002  
       00000002  
       00000002  
</DataArray>

</CellData>
<Points>
<DataArray type="Float32" NumberOfComponents="3" format="ascii">
 8.5000000E-001 4.0000000E-001 0.0000000E+000 9.5000000E-001 4.0000000E-001 0.0000000E+000 9.5000000E-001 6.0000000E-001 0.0000000E+000 8.5000000E-001 6.0000000E-001 0.0000000E+000 9.5000000E-001 4.0000000E-001 0.0000000E+000 1.0000000E+000 4.0000000E-001 0.0000000E+000 1.0000000E+000 6.0000000E-001 0.0000000E+000 9.5000000E-001 6.0000000E-001 0.0000000E+000 9.5000000E-001 6.0000000E-001 0.0000000E+000 1.0000000E+000 6.0000000E-001 0.0000000E+000 1.0000000E+000 8.0000000E-001 0.0000000E+000 9.5000000E-001 8.0000000E-001 0.0000000E+000 4.0000000E-001 4.0000000E-001 0.0000000E+000 5.0000000E-001 4.0000000E-001 0.0000000E+000 5.0000000E-001 5.0000000E-001 0.0000000E+000 4.0000000E-001 5.0000000E-001 0.0000000E+000 5.0000000E-001 4.0000000E-001 0.0000000E+000 6.0000000E-001 4.0000000E-001 0.0000000E+000 6.0000000E-001 5.0000000E-001 0.0000000E+000 5.0000000E-001 5.0000000E-001 0.0000000E+000 5.0000000E-001 5.0000000E-001 0.0000000E+000 6.0000000E-001 5.0000000E-001 0.0000000E+000 6.0000000E-001 6.0000000E-001 0.0000000E+000 5.0000000E-001 6.0000000E-001 0.0000000E+000 4.0000000E-001 5.0000000E-001 0.0000000E+000 5.0000000E-001 5.0000000E-001 0.0000000E+000 5.0000000E-001 6.0000000E-001 0.0000000E+000 4.0000000E-001 6.0000000E-001 0.0000000E+000 6.0000000E-001 4.0000000E-001 0.0000000E+000 7.0000000E-001 4.0000000E-001 0.0000000E+000 7.0000000E-001 5.0000000E-001 0.0000000E+000 6.0000000E-001 5.0000000E-001 0.0000000E+000 7.0000000E-001 4.0000000E-001 0.0000000E+000 8.0000000E-001 4.0000000E-001 0.0000000E+000 8.0000000E-001 5.0000000E-001 0.0000000E+000 7.0000000E-001 5.0000000E-001 0.0000000E+000 7.0000000E-001 5.0000000E-001 0.0000000E+000 8.0000000E-001 5.0000000E-001 0.0000000E+000 8.0000000E-001 6.0000000E-001 0.0000000E+000 7.0000000E-001 6.0000000E-001 0.0000000E+000 6.0000000E-001 5.0000000E-001 0.0000000E+000 7.0000000E-001 5.0000000E-001 0.0000000E+000 7.0000000E-001 6.0000000E-001 0.0000000E+000 6.0000000E-001 6.0000000E-001 0.0000000E+000 8.0000000E-001 4.0000000E-001 0.0000000E+000 8.2500000E-001 4.0000000E-001 0.0000000E+000 8.2500000E-001 5.0000000E-001 0.0000000E+000 8.0000000E-001 5.0000000E-001 0.0000000E+000 8.2500000E-001 4.0000000E-001 0.0000000E+000 8.5000000E-001 4.0000000E-001 0.0000000E+000 8.5000000E-001 5.0000000E-001 0.0000000E+000 8.2500000E-001 5.0000000E-001 0.0000000E+000 8.2500000E-001 5.0000000E-001 0.0000000E+000 8.5000000E-001 5.0000000E-001 0.0000000E+000 8.5000000E-001 6.0000000E-001 0.0000000E+000 8.2500000E-001 6.0000000E-001 0.0000000E+000 8.0000000E-001 5.0000000E-001 0.0000000E+000 8.2500000E-001 5.0000000E-001 0.0000000E+000 8.2500000E-001 6.0000000E-001 0.0000000E+000 8.0000000E-001 6.0000000E-001 0.0000000E+000 4.0000000E-001 6.0000000E-001 0.0000000E+000 5.0000000E-001 6.0000000E-001 0.0000000E+000 5.0000000E-001 7.0000000E-001 0.0000000E+000 4.0000000E-001 7.0000000E-001 0.0000000E+000 5.0000000E-001 6.0000000E-001 0.0000000E+000 6.0000000E-001 6.0000000E-001 0.0000000E+000 6.0000000E-001 7.0000000E-001 0.0000000E+000 5.0000000E-001 7.0000000E-001 0.0000000E+000 5.0000000E-001 7.0000000E-001 0.0000000E+000 6.0000000E-001 7.0000000E-001 0.0000000E+000 6.0000000E-001 8.0000000E-001 0.0000000E+000 5.0000000E-001 8.0000000E-001 0.0000000E+000 4.0000000E-001 7.0000000E-001 0.0000000E+000 5.0000000E-001 7.0000000E-001 0.0000000E+000 5.0000000E-001 8.0000000E-001 0.0000000E+000 4.0000000E-001 8.0000000E-001 0.0000000E+000 6.0000000E-001 6.0000000E-001 0.0000000E+000 7.0000000E-001 6.0000000E-001 0.0000000E+000 7.0000000E-001 7.0000000E-001 0.0000000E+000 6.0000000E-001 7.0000000E-001 0.0000000E+000 7.0000000E-001 6.0000000E-001 0.0000000E+000 8.0000000E-001 6.0000000E-001 0.0000000E+000 8.0000000E-001 7.0000000E-001 0.0000000E+000 7.0000000E-001 7.0000000E-001 0.0000000E+000 7.0000000E-001 7.0000000E-001 0.0000000E+000 8.0000000E-001 7.0000000E-001 0.0000000E+000 8.0000000E-001 8.0000000E-001 0.0000000E+000 7.0000000E-001 8.0000000E-001 0.0000000E+000 6.0000000E-001 7.0000000E-001 0.0000000E+000 7.0000000E-001 7.0000000E-001 0.0000000E+000 7.0000000E-001 8.0000000E-001 0.0000000E+000 6.0000000E-001 8.0000000E-001 0.0000000E+000 8.0000000E-001 6.0000000E-001 0.0000000E+000 8.2500000E-001 6.0000000E-001 0.0000000E+000 8.2500000E-001 7.0000000E-001 0.0000000E+000 8.0000000E-001 7.0000000E-001 0.0000000E+000 8.2500000E-001 6.0000000E-001 0.0000000E+000 8.5000000E-001 6.0000000E-001 0.0000000E+000 8.5000000E-001 7.0000000E-001 0.0000000E+000 8.2500000E-001 7.0000000E-001 0.0000000E+000 8.2500000E-001 7.0000000E-001 0.0000000E+000 8.5000000E-001 7.0000000E-001 0.0000000E+000 8.5000000E-001 8.0000000E-001 0.0000000E+000 8.2500000E-001 8.0000000E-001 0.0000000E+000 8.0000000E-001 7.0000000E-001 0.0000000E+000 8.2500000E-001 7.0000000E-001 0.0000000E+000 8.2500000E-001 8.0000000E-001 0.0000000E+000 8.0000000E-001 8.0000000E-001 0.0000000E+000 8.5000000E-001 6.0000000E-001 0.0000000E+000 9.0000000E-001 6.0000000E-001 0.0000000E+000 9.0000000E-001 7.0000000E-001 0.0000000E+000 8.5000000E-001 7.0000000E-001 0.0000000E+000 9.0000000E-001 6.0000000E-001 0.0000000E+000 9.5000000E-001 6.0000000E-001 0.0000000E+000 9.5000000E-001 7.0000000E-001 0.0000000E+000 9.0000000E-001 7.0000000E-001 0.0000000E+000 9.0000000E-001 7.0000000E-001 0.0000000E+000 9.5000000E-001 7.0000000E-001 0.0000000E+000 9.5000000E-001 8.0000000E-001 0.0000000E+000 9.0000000E-001 8.0000000E-001 0.0000000E+000 8.5000000E-001 7.0000000E-001 0.0000000E+000 9.0000000E-001 7.0000000E-001 0.0000000E+000 9.0000000E-001 8.0000000E-001 0.0000000E+000 8.5000000E-001 8.0000000E-001 0.0000000E+000
</DataArray>
</Points>

<Cells>
<DataArray type="Int32" Name="connectivity" format="ascii">
           0           1           2           3
           4           5           6           7
           8           9          10          11
          12          13          14          15
          16          17          18          19
          20          21          22          23
          24          25          26          27
          28          29          30          31
          32          33          34          35
          36          37          38          39
          40          41          42          43
          44          45          46          47
          48          49          50          51
          52          53          54          55
          56          57          58          59
          60          61          62          63
          64          65          66          67
          68          69          70          71
          72          73          74          75
          76          77          78          79
          80          81          82          83
          84          85          86          87
          88          89          90          91
          92          93          94          95
          96          97          98          99
         100         101         102         103
         104         105         106         107
         108         109         110         111
         112         113         114         115
         116         117         118         119
         120         121         122         123
</DataArray>
<DataArray type="Int32" Name="offsets" format="ascii">
       4         8        12        16        20        24        28        32        36        40        44        48        52        56        60        64        68        72        76        80        84        88        92        96       100       104       108       112       116       120       124  
</DataArray>
<DataArray type="UInt8" Name="types" format="ascii">
 9   9   9   9   9   9   9   9   9   9   9   9   9   9   9   9   9   9   9   9   9   9   9   9   9   9   9   9   9   9   9  
</DataArray>
</Cells>

</Piece>
</UnstructuredGrid>
</VTKFile>

